 Gaussian 16, Revision C.01,
 Gaussian 16:  ES64L-G16RevC.01  3-Jul-2019

 ------------------------------
 #P B3LYP/6-31G* em=gd3 out=wfn
 ------------------------------

 -------------------
 Title Card Required
 -------------------
 Symbolic Z-matrix:
 Charge = -1 Multiplicity = 2

                         Standard orientation:
 ---------------------------------------------------------------------
 Center     Atomic      Atomic             Coordinates (Angstroms)
 Number     Number       Type             X           Y           Z
 ---------------------------------------------------------------------
      1          6           0        0.560458    1.669077   -0.293302
      2          6           0       -0.448431    2.332702   -0.121866
      3          6           0       -1.630839    3.067638    0.082759
      4          6           0       -2.880182    2.527415    0.099784
      5          6           0       -3.134188    1.144072   -0.065366
      6          6           0       -3.329447   -0.047309   -0.203980
      7          7           0        1.621394    0.890157   -0.514262
      8          1           0       -1.529543    4.141675    0.232036
      9          1           0       -3.731656    3.187816    0.249280
     10          6           0       -3.510841   -1.494546   -0.350721
     11          6           0        2.921550    1.229760    0.114984
     12          6           0        1.394818   -0.574977   -0.581957
     13          6           0       -2.196858   -2.164314   -0.805906
     14          1           0       -4.266582   -1.672259   -1.131197
     15          6           0       -4.029042   -2.126866    0.958118
     16          6           0        3.534698   -0.081498    0.625137
     17          1           0        3.588749    1.693217   -0.621017
     18          1           0        2.767202    1.931866    0.942702
     19          6           0        2.619504   -1.186191   -1.266818
     20          6           0        1.265713   -1.131986    0.845132
     21          1           0        0.495451   -0.751872   -1.175814
     22          1           0       -1.837288   -1.727928   -1.743481
     23          1           0       -2.347452   -3.239598   -0.958056
     24          1           0       -1.420210   -2.028953   -0.044743
     25          1           0       -4.971774   -1.667742    1.272017
     26          1           0       -4.193643   -3.202217    0.821048
     27          1           0       -3.299311   -1.987965    1.763657
     28          8           0        3.801567   -0.947307   -0.484676
     29          6           0        2.578934   -0.782187    1.605251
     30          1           0        4.506350    0.118108    1.085610
     31          1           0        2.486189   -2.270672   -1.373862
     32          1           0        2.753732   -0.750323   -2.265510
     33          1           0        1.100841   -2.214944    0.806973
     34          1           0        0.389089   -0.682184    1.323243
     35          1           0        2.382816   -0.129523    2.464712
     36          1           0        3.069659   -1.683900    1.982141
 ---------------------------------------------------------------------

 SCF Done:  E(UB3LYP) =  -712.846970286     A.U. after   19 cycles

 The electronic state is 2-A.
 Alpha  occ. eigenvalues --  -19.04364 -14.21654 -10.13693 -10.12729 -10.10675
 Alpha  occ. eigenvalues --  -10.10136 -10.08533 -10.07503 -10.07018 -10.05475
 Alpha  occ. eigenvalues --  -10.05234 -10.01120  -9.99628  -9.98665  -9.98133
 Alpha  occ. eigenvalues --   -9.97862  -9.97167  -0.93113  -0.80960  -0.68085
 Alpha  occ. eigenvalues --   -0.67179  -0.66745  -0.60813  -0.58801  -0.56053
 Alpha  occ. eigenvalues --   -0.54849  -0.53533  -0.52288  -0.51348  -0.46922
 Alpha  occ. eigenvalues --   -0.44249  -0.41268  -0.39994  -0.39039  -0.38415
 Alpha  occ. eigenvalues --   -0.34532  -0.33319  -0.32551  -0.31822  -0.30706
 Alpha  occ. eigenvalues --   -0.30370  -0.29828  -0.28771  -0.28284  -0.28036
 Alpha  occ. eigenvalues --   -0.26925  -0.26260  -0.25703  -0.24976  -0.23188
 Alpha  occ. eigenvalues --   -0.22678  -0.21932  -0.21684  -0.20025  -0.18889
 Alpha  occ. eigenvalues --   -0.17183  -0.14655  -0.13482  -0.08776  -0.07387
 Alpha  occ. eigenvalues --   -0.06758  -0.01239   0.10554
 Alpha virt. eigenvalues --    0.17613   0.20349   0.20895   0.21251   0.22406
 Alpha virt. eigenvalues --    0.23119   0.23574   0.24233   0.24376   0.25085
 Alpha virt. eigenvalues --    0.25392   0.26420   0.27213   0.27586   0.28038

  Beta  occ. eigenvalues --  -19.04364 -14.21590 -10.13691 -10.12725 -10.10673
  Beta  occ. eigenvalues --  -10.10107 -10.08532 -10.07498 -10.07052 -10.05471
  Beta  occ. eigenvalues --  -10.05182 -10.00780  -9.99752  -9.98711  -9.97657
  Beta  occ. eigenvalues --   -9.97514  -9.96847  -0.93106  -0.80774  -0.68037
  Beta  occ. eigenvalues --   -0.67145  -0.66595  -0.60147  -0.58424  -0.56007
  Beta  occ. eigenvalues --   -0.54537  -0.53363  -0.52252  -0.50977  -0.46627
  Beta  occ. eigenvalues --   -0.44119  -0.40505  -0.39881  -0.39012  -0.38338
  Beta  occ. eigenvalues --   -0.34350  -0.33178  -0.32511  -0.31738  -0.30655
  Beta  occ. eigenvalues --   -0.30089  -0.29790  -0.28747  -0.28204  -0.27999
  Beta  occ. eigenvalues --   -0.26891  -0.26227  -0.25576  -0.24662  -0.22959
  Beta  occ. eigenvalues --   -0.22646  -0.21841  -0.21540  -0.19732  -0.18834
  Beta  occ. eigenvalues --   -0.16205  -0.14516  -0.11758  -0.08211  -0.06654
  Beta  occ. eigenvalues --   -0.06244   0.00859
  Beta virt. eigenvalues --    0.17481   0.17711   0.20444   0.20975   0.21373
  Beta virt. eigenvalues --    0.22514   0.23226   0.23705   0.24318   0.24490
  Beta virt. eigenvalues --    0.25177   0.25515   0.26558   0.27304   0.27706

 Mulliken charges and spin densities:
               1          2
     1  C   -0.165392   0.254866
     2  C    0.397992  -0.103934
     3  C   -0.354319   0.353986
     4  C   -0.371597   0.251214
     5  C    0.125767  -0.041498
     6  C   -0.129016   0.250337
     7  N   -0.587799   0.017965
     8  H    0.044013  -0.021183
     9  H    0.042278  -0.016257
    10  C   -0.186716  -0.013474
    11  C   -0.104943   0.003806
    12  C   -0.024140  -0.000449
    13  C   -0.434572   0.001195
    14  H    0.094599   0.016890
    15  C   -0.410280   0.008278
    16  C    0.102426   0.001834
    17  H    0.121100   0.000064
    18  H    0.122911   0.009867
    19  C   -0.003811   0.000672
    20  C   -0.272243   0.004754
    21  H    0.159121   0.000761
    22  H    0.142930  -0.000022
    23  H    0.095100  -0.000308
    24  H    0.150590   0.000644
    25  H    0.127494  -0.000222
    26  H    0.082274   0.012644
    27  H    0.130596   0.002478
    28  O   -0.514483   0.000024
    29  C   -0.267040   0.000738
    30  H    0.104710   0.001167
    31  H    0.109678   0.001324
    32  H    0.125836   0.000858
    33  H    0.113358  -0.000192
    34  H    0.182850  -0.000000
    35  H    0.130991   0.001216
    36  H    0.119738  -0.000046
 Sum of Mulliken charges =  -1.00000   1.00000

 Dipole moment (field-independent basis, Debye):
    X=              7.1676    Y=             -6.1854    Z=              1.0253  Tot=              9.5229
 Quadrupole moment (field-independent basis, Debye-Ang):
   XX=           -146.4777   YY=           -127.2038   ZZ=           -107.8476
   XY=             12.4625   XZ=              3.7605   YZ=              2.4895

 Normal termination of Gaussian 16 at Thu Oct 17 10:21:25 2024.
