 Gaussian 16, Revision C.01,
 Gaussian 16:  ES64L-G16RevC.01  3-Jul-2019

 ------------------------------
 #P B3LYP/6-31G* em=gd3 out=wfn
 ------------------------------

 -------------------
 Title Card Required
 -------------------
 Symbolic Z-matrix:
 Charge =  1 Multiplicity = 2

                         Standard orientation:
 ---------------------------------------------------------------------
 Center     Atomic      Atomic             Coordinates (Angstroms)
 Number     Number       Type             X           Y           Z
 ---------------------------------------------------------------------
      1          6           0        0.560458    1.669077   -0.293302
      2          6           0       -0.448431    2.332702   -0.121866
      3          6           0       -1.630839    3.067638    0.082759
      4          6           0       -2.880182    2.527415    0.099784
      5          6           0       -3.134188    1.144072   -0.065366
      6          6           0       -3.329447   -0.047309   -0.203980
      7          7           0        1.621394    0.890157   -0.514262
      8          1           0       -1.529543    4.141675    0.232036
      9          1           0       -3.731656    3.187816    0.249280
     10          6           0       -3.510841   -1.494546   -0.350721
     11          6           0        2.921550    1.229760    0.114984
     12          6           0        1.394818   -0.574977   -0.581957
     13          6           0       -2.196858   -2.164314   -0.805906
     14          1           0       -4.266582   -1.672259   -1.131197
     15          6           0       -4.029042   -2.126866    0.958118
     16          6           0        3.534698   -0.081498    0.625137
     17          1           0        3.588749    1.693217   -0.621017
     18          1           0        2.767202    1.931866    0.942702
     19          6           0        2.619504   -1.186191   -1.266818
     20          6           0        1.265713   -1.131986    0.845132
     21          1           0        0.495451   -0.751872   -1.175814
     22          1           0       -1.837288   -1.727928   -1.743481
     23          1           0       -2.347452   -3.239598   -0.958056
     24          1           0       -1.420210   -2.028953   -0.044743
     25          1           0       -4.971774   -1.667742    1.272017
     26          1           0       -4.193643   -3.202217    0.821048
     27          1           0       -3.299311   -1.987965    1.763657
     28          8           0        3.801567   -0.947307   -0.484676
     29          6           0        2.578934   -0.782187    1.605251
     30          1           0        4.506350    0.118108    1.085610
     31          1           0        2.486189   -2.270672   -1.373862
     32          1           0        2.753732   -0.750323   -2.265510
     33          1           0        1.100841   -2.214944    0.806973
     34          1           0        0.389089   -0.682184    1.323243
     35          1           0        2.382816   -0.129523    2.464712
     36          1           0        3.069659   -1.683900    1.982141
 ---------------------------------------------------------------------

 SCF Done:  E(UB3LYP) =  -712.647388346     A.U. after   21 cycles

 The electronic state is 2-A.
 Alpha  occ. eigenvalues --  -19.27291 -14.57627 -10.40704 -10.38852 -10.38409
 Alpha  occ. eigenvalues --  -10.38210 -10.38118 -10.37423 -10.37328 -10.36380
 Alpha  occ. eigenvalues --  -10.35237 -10.34408 -10.33698 -10.32930 -10.31403
 Alpha  occ. eigenvalues --  -10.30468 -10.29690  -1.17283  -1.13173  -0.99166
 Alpha  occ. eigenvalues --   -0.95313  -0.94332  -0.92994  -0.91567  -0.87835
 Alpha  occ. eigenvalues --   -0.84785  -0.80744  -0.79708  -0.78713  -0.77351
 Alpha  occ. eigenvalues --   -0.73973  -0.72505  -0.68402  -0.65708  -0.65407
 Alpha  occ. eigenvalues --   -0.63944  -0.62995  -0.61555  -0.60366  -0.57701
 Alpha  occ. eigenvalues --   -0.57359  -0.56583  -0.56168  -0.55441  -0.54179
 Alpha  occ. eigenvalues --   -0.53809  -0.53650  -0.52777  -0.51735  -0.50980
 Alpha  occ. eigenvalues --   -0.50271  -0.49410  -0.47863  -0.47231  -0.47125
 Alpha  occ. eigenvalues --   -0.46547  -0.44526  -0.42865  -0.42093  -0.40810
 Alpha  occ. eigenvalues --   -0.37809  -0.36921
 Alpha virt. eigenvalues --   -0.20513  -0.13156  -0.09570  -0.07101  -0.06563
 Alpha virt. eigenvalues --   -0.03530  -0.02741  -0.01927  -0.00745  -0.00373
 Alpha virt. eigenvalues --    0.00384   0.00686   0.01520   0.01973   0.02583

  Beta  occ. eigenvalues --  -19.27283 -14.56988 -10.40673 -10.38502 -10.38413
  Beta  occ. eigenvalues --  -10.38219 -10.37779 -10.37406 -10.37335 -10.36369
  Beta  occ. eigenvalues --  -10.34914 -10.34422 -10.33756 -10.32885 -10.31403
  Beta  occ. eigenvalues --  -10.30465 -10.29657  -1.17016  -1.12414  -0.98461
  Beta  occ. eigenvalues --   -0.94869  -0.94057  -0.92811  -0.90907  -0.87421
  Beta  occ. eigenvalues --   -0.84352  -0.80694  -0.79370  -0.78539  -0.77235
  Beta  occ. eigenvalues --   -0.73810  -0.72223  -0.68149  -0.65568  -0.64735
  Beta  occ. eigenvalues --   -0.63695  -0.62770  -0.61350  -0.60052  -0.57555
  Beta  occ. eigenvalues --   -0.57237  -0.56431  -0.55712  -0.55294  -0.53710
  Beta  occ. eigenvalues --   -0.53613  -0.52963  -0.52638  -0.51174  -0.50631
  Beta  occ. eigenvalues --   -0.49630  -0.49063  -0.47498  -0.47160  -0.47013
  Beta  occ. eigenvalues --   -0.45465  -0.44129  -0.42794  -0.40641  -0.39971
  Beta  occ. eigenvalues --   -0.37516
  Beta virt. eigenvalues --   -0.30341  -0.18682  -0.12945  -0.09443  -0.06533
  Beta virt. eigenvalues --   -0.05583  -0.03202  -0.02567  -0.01721  -0.00611
  Beta virt. eigenvalues --   -0.00156   0.00564   0.01332   0.01611   0.02096

 Mulliken charges and spin densities:
               1          2
     1  C    0.038123   0.005592
     2  C    0.542984   0.233366
     3  C   -0.229559  -0.009585
     4  C   -0.213587   0.276542
     5  C    0.134786  -0.074718
     6  C    0.091199   0.232232
     7  N   -0.552475   0.284953
     8  H    0.228669   0.000775
     9  H    0.230676  -0.012119
    10  C   -0.241838  -0.010959
    11  C   -0.173999  -0.009950
    12  C   -0.077322  -0.010229
    13  C   -0.458682   0.000954
    14  H    0.206376   0.009350
    15  C   -0.445278   0.012851
    16  C    0.084454   0.008633
    17  H    0.221717   0.014305
    18  H    0.198978   0.008032
    19  C   -0.019235   0.003660
    20  C   -0.283877   0.024720
    21  H    0.186782   0.002296
    22  H    0.164493   0.000251
    23  H    0.185431  -0.000020
    24  H    0.154058   0.000163
    25  H    0.182301  -0.000539
    26  H    0.184072   0.002807
    27  H    0.163145   0.000111
    28  O   -0.473477   0.003149
    29  C   -0.289616  -0.000504
    30  H    0.191456   0.000425
    31  H    0.180147  -0.000394
    32  H    0.174184   0.001639
    33  H    0.189846   0.002734
    34  H    0.166635  -0.001530
    35  H    0.164169   0.000405
    36  H    0.194267   0.000600
 Sum of Mulliken charges =   1.00000   1.00000

 Dipole moment (field-independent basis, Debye):
    X=             -2.2263    Y=              2.7061    Z=              0.6284  Tot=              3.5601
 Quadrupole moment (field-independent basis, Debye-Ang):
   XX=            -63.4720   YY=            -70.1288   ZZ=            -93.9104
   XY=              2.0576   XZ=              3.6632   YZ=              2.5143

 Normal termination of Gaussian 16 at Thu Oct 17 10:22:31 2024.
