 Gaussian 16, Revision C.01,
 Gaussian 16:  ES64L-G16RevC.01  3-Jul-2019

 --------------------------------
 #p b3lyp/6-31g(d) em=gd3 pop=NBO
 --------------------------------

 -------------------
 Title Card Required
 -------------------
 Symbolic Z-matrix:
 Charge =  0 Multiplicity = 1

                         Standard orientation:
 ---------------------------------------------------------------------
 Center     Atomic      Atomic             Coordinates (Angstroms)
 Number     Number       Type             X           Y           Z
 ---------------------------------------------------------------------
      1          6           0        0.560458    1.669077   -0.293302
      2          6           0       -0.448431    2.332702   -0.121866
      3          6           0       -1.630839    3.067638    0.082759
      4          6           0       -2.880182    2.527415    0.099784
      5          6           0       -3.134188    1.144072   -0.065366
      6          6           0       -3.329447   -0.047309   -0.203980
      7          7           0        1.621394    0.890157   -0.514262
      8          1           0       -1.529543    4.141675    0.232036
      9          1           0       -3.731656    3.187816    0.249280
     10          6           0       -3.510841   -1.494546   -0.350721
     11          6           0        2.921550    1.229760    0.114984
     12          6           0        1.394818   -0.574977   -0.581957
     13          6           0       -2.196858   -2.164314   -0.805906
     14          1           0       -4.266582   -1.672259   -1.131197
     15          6           0       -4.029042   -2.126866    0.958118
     16          6           0        3.534698   -0.081498    0.625137
     17          1           0        3.588749    1.693217   -0.621017
     18          1           0        2.767202    1.931866    0.942702
     19          6           0        2.619504   -1.186191   -1.266818
     20          6           0        1.265713   -1.131986    0.845132
     21          1           0        0.495451   -0.751872   -1.175814
     22          1           0       -1.837288   -1.727928   -1.743481
     23          1           0       -2.347452   -3.239598   -0.958056
     24          1           0       -1.420210   -2.028953   -0.044743
     25          1           0       -4.971774   -1.667742    1.272017
     26          1           0       -4.193643   -3.202217    0.821048
     27          1           0       -3.299311   -1.987965    1.763657
     28          8           0        3.801567   -0.947307   -0.484676
     29          6           0        2.578934   -0.782187    1.605251
     30          1           0        4.506350    0.118108    1.085610
     31          1           0        2.486189   -2.270672   -1.373862
     32          1           0        2.753732   -0.750323   -2.265510
     33          1           0        1.100841   -2.214944    0.806973
     34          1           0        0.389089   -0.682184    1.323243
     35          1           0        2.382816   -0.129523    2.464712
     36          1           0        3.069659   -1.683900    1.982141
 ---------------------------------------------------------------------

 SCF Done:  E(RB3LYP) =  -712.888626535     A.U. after   16 cycles

 The electronic state is 1-A.
 Alpha  occ. eigenvalues --  -19.15007 -14.37027 -10.24674 -10.23721 -10.23398
 Alpha  occ. eigenvalues --  -10.22688 -10.21087 -10.20686 -10.20091 -10.19325
 Alpha  occ. eigenvalues --  -10.19255 -10.19162 -10.18138 -10.17828 -10.17261
 Alpha  occ. eigenvalues --  -10.16880 -10.16658  -1.04026  -0.95483  -0.81135
 Alpha  occ. eigenvalues --   -0.80276  -0.79406  -0.79022  -0.73924  -0.71217
 Alpha  occ. eigenvalues --   -0.68627  -0.68314  -0.64874  -0.64108  -0.62516
 Alpha  occ. eigenvalues --   -0.59346  -0.56736  -0.51866  -0.50821  -0.50740
 Alpha  occ. eigenvalues --   -0.50120  -0.47958  -0.45822  -0.44694  -0.44484
 Alpha  occ. eigenvalues --   -0.43999  -0.42240  -0.41758  -0.41195  -0.40401
 Alpha  occ. eigenvalues --   -0.39759  -0.39465  -0.38871  -0.38536  -0.37474
 Alpha  occ. eigenvalues --   -0.36564  -0.35122  -0.34827  -0.34141  -0.33408
 Alpha  occ. eigenvalues --   -0.30389  -0.29720  -0.25958  -0.25386  -0.24360
 Alpha  occ. eigenvalues --   -0.23948  -0.17858
 Alpha virt. eigenvalues --   -0.02227   0.04482   0.06057   0.07062   0.09186
 Alpha virt. eigenvalues --    0.09983   0.10261   0.11620   0.11839   0.12715
 Alpha virt. eigenvalues --    0.13836   0.14188   0.14825   0.15314   0.15420

 Mulliken charges:
               1
     1  C   -0.042393
     2  C    0.424973
     3  C   -0.254622
     4  C   -0.290540
     5  C    0.130183
     6  C   -0.011208
     7  N   -0.602117
     8  H    0.151615
     9  H    0.147150
    10  C   -0.213829
    11  C   -0.134991
    12  C   -0.043731
    13  C   -0.447718
    14  H    0.155846
    15  C   -0.432946
    16  C    0.095648
    17  H    0.163334
    18  H    0.155791
    19  C   -0.009232
    20  C   -0.276769
    21  H    0.163916
    22  H    0.156159
    23  H    0.142382
    24  H    0.157586
    25  H    0.155817
    26  H    0.140767
    27  H    0.150908
    28  O   -0.497095
    29  C   -0.277223
    30  H    0.144059
    31  H    0.140608
    32  H    0.147052
    33  H    0.144701
    34  H    0.168373
    35  H    0.143857
    36  H    0.153688
 Sum of Mulliken charges =  -0.00000

 Dipole moment (field-independent basis, Debye):
    X=              0.8692    Y=             -1.3297    Z=              0.9512  Tot=              1.8516
 Quadrupole moment (field-independent basis, Debye-Ang):
   XX=           -103.5463   YY=            -96.0862   ZZ=           -100.9735
   XY=              6.1758   XZ=              3.8493   YZ=              2.8531

 Summary of Natural Population Analysis:

                                       Natural Population
                Natural  -----------------------------------------------
    Atom  No    Charge         Core      Valence    Rydberg      Total
 -----------------------------------------------------------------------
      C    1    0.19301      1.99853     3.79313    0.01534     5.80699
      C    2   -0.09835      1.99850     4.08836    0.01149     6.09835
      C    3   -0.24588      1.99899     4.23442    0.01247     6.24588
      C    4   -0.29106      1.99898     4.27945    0.01262     6.29106
      C    5   -0.04205      1.99857     4.03151    0.01196     6.04205
      C    6   -0.00300      1.99862     3.98875    0.01563     6.00300
      N    7   -0.48917      1.99931     5.47246    0.01740     7.48917
      H    8    0.24675      0.00000     0.75215    0.00110     0.75325
      H    9    0.24483      0.00000     0.75409    0.00108     0.75517
      C   10   -0.31233      1.99915     4.30250    0.01069     6.31233
      C   11   -0.27379      1.99926     4.25883    0.01569     6.27379
      C   12   -0.08688      1.99918     4.07041    0.01730     6.08688
      C   13   -0.65792      1.99942     4.65053    0.00797     6.65792
      H   14    0.26181      0.00000     0.73603    0.00216     0.73819
      C   15   -0.65930      1.99943     4.65179    0.00809     6.65930
      C   16    0.06572      1.99912     3.91097    0.02419     5.93428
      H   17    0.24146      0.00000     0.75655    0.00200     0.75854
      H   18    0.24056      0.00000     0.75763    0.00181     0.75944
      C   19   -0.11658      1.99920     4.09746    0.01993     6.11658
      C   20   -0.48366      1.99930     4.47155    0.01280     6.48366
      H   21    0.27233      0.00000     0.72614    0.00153     0.72767
      H   22    0.23583      0.00000     0.76325    0.00092     0.76417
      H   23    0.22939      0.00000     0.76957    0.00104     0.77061
      H   24    0.22506      0.00000     0.77347    0.00147     0.77494
      H   25    0.23930      0.00000     0.75986    0.00084     0.76070
      H   26    0.22758      0.00000     0.77132    0.00109     0.77242
      H   27    0.23063      0.00000     0.76808    0.00129     0.76937
      O   28   -0.58652      1.99981     6.57398    0.01273     8.58652
      C   29   -0.49135      1.99930     4.47916    0.01289     6.49135
      H   30    0.25278      0.00000     0.74595    0.00127     0.74722
      H   31    0.22067      0.00000     0.77773    0.00160     0.77933
      H   32    0.22177      0.00000     0.77620    0.00203     0.77823
      H   33    0.24183      0.00000     0.75700    0.00118     0.75817
      H   34    0.25505      0.00000     0.74366    0.00129     0.74495
      H   35    0.24169      0.00000     0.75698    0.00133     0.75831
      H   36    0.24981      0.00000     0.74874    0.00145     0.75019
 =======================================================================
   * Total *    0.00000     33.98467    89.74967    0.26566   124.00000

 Normal termination of Gaussian 16 at Thu Oct 17 10:25:13 2024.
